<?xml version="1.0" encoding="UTF-8"?>

<!-- generated on 02/10/21 15:37:18 by Eclipse SUMO GUI Version 1.5.0
<configuration xmlns:xsi="http://www.w3.org/2001/XMLSchema-instance" xsi:noNamespaceSchemaLocation="http://sumo.dlr.de/xsd/sumoConfiguration.xsd">

    <input>
        <net-file value="net.net.xml"/>
        <route-files value="rou.rou.xml"/>
        <additional-files value="demo.add.xml"/>
    </input>

    <output>
        <tripinfo-output value="tripinfo.xml"/>
    </output>

    <time>
        <step-length value="0.1"/>
    </time>

    <report>
        <verbose value="true"/>
    </report>

    <traci_server>
        <remote-port value="62211"/>
    </traci_server>

    <gui_only>
        <tracker-interval value="0.1"/>
    </gui_only>

</configuration>
-->

<tripinfos xmlns:xsi="http://www.w3.org/2001/XMLSchema-instance" xsi:noNamespaceSchemaLocation="http://sumo.dlr.de/xsd/tripinfo_file.xsd">
    <tripinfo id="mali0" depart="0.00" departLane="A1_1" departPos="5.10" departSpeed="0.00" departDelay="0.00" arrival="324.70" arrivalLane="A10_0" arrivalPos="1000.00" arrivalSpeed="31.24" duration="324.70" routeLength="9995.80" waitingTime="0.00" waitingCount="0" stopTime="0.00" timeLoss="6.11" rerouteNo="0" devices="tripinfo_mali0" vType="malicious@mali0" speedFactor="1.06" vaporized=""/>
    <tripinfo id="MIMO6" depart="5.00" departLane="A1_0" departPos="5.10" departSpeed="0.00" departDelay="0.00" arrival="331.00" arrivalLane="A10_0" arrivalPos="1000.00" arrivalSpeed="31.10" duration="326.00" routeLength="9995.80" waitingTime="0.00" waitingCount="0" stopTime="0.00" timeLoss="6.07" rerouteNo="0" devices="tripinfo_MIMO6" vType="strong" speedFactor="0.94" vaporized=""/>
    <tripinfo id="MIMO7" depart="10.00" departLane="A1_0" departPos="5.10" departSpeed="0.00" departDelay="0.00" arrival="334.60" arrivalLane="A10_0" arrivalPos="1000.00" arrivalSpeed="31.33" duration="324.60" routeLength="9995.80" waitingTime="0.00" waitingCount="0" stopTime="0.00" timeLoss="6.01" rerouteNo="0" devices="tripinfo_MIMO7" vType="strong" speedFactor="1.01" vaporized=""/>
    <tripinfo id="MIMO8" depart="15.00" departLane="A1_1" departPos="5.10" departSpeed="0.00" departDelay="0.00" arrival="339.50" arrivalLane="A10_0" arrivalPos="1000.00" arrivalSpeed="31.18" duration="324.50" routeLength="9995.80" waitingTime="0.00" waitingCount="0" stopTime="0.00" timeLoss="5.88" rerouteNo="0" devices="tripinfo_MIMO8" vType="strong" speedFactor="1.08" vaporized=""/>
    <tripinfo id="MIMO9" depart="20.00" departLane="A1_1" departPos="5.10" departSpeed="0.00" departDelay="0.00" arrival="344.60" arrivalLane="A10_0" arrivalPos="1000.00" arrivalSpeed="31.31" duration="324.60" routeLength="9995.80" waitingTime="0.00" waitingCount="0" stopTime="0.00" timeLoss="5.98" rerouteNo="0" devices="tripinfo_MIMO9" vType="weak@MIMO9" speedFactor="1.03" vaporized=""/>
    <tripinfo id="mali16" depart="30.00" departLane="A1_0" departPos="5.10" departSpeed="0.00" departDelay="0.00" arrival="354.90" arrivalLane="A10_0" arrivalPos="1000.00" arrivalSpeed="31.35" duration="324.90" routeLength="9995.80" waitingTime="0.00" waitingCount="0" stopTime="0.00" timeLoss="6.30" rerouteNo="0" devices="tripinfo_mali16" vType="malicious@mali16" speedFactor="1.05" vaporized=""/>
    <tripinfo id="MIMO23" depart="40.00" departLane="A1_1" departPos="5.10" departSpeed="0.00" departDelay="0.00" arrival="366.10" arrivalLane="A10_0" arrivalPos="1000.00" arrivalSpeed="31.06" duration="326.10" routeLength="9995.80" waitingTime="0.00" waitingCount="0" stopTime="0.00" timeLoss="6.04" rerouteNo="0" devices="tripinfo_MIMO23" vType="weak@MIMO23" speedFactor="0.94" vaporized=""/>
    <tripinfo id="MIMO25" depart="50.00" departLane="A1_1" departPos="5.10" departSpeed="0.00" departDelay="0.00" arrival="374.60" arrivalLane="A10_0" arrivalPos="1000.00" arrivalSpeed="31.21" duration="324.60" routeLength="9995.80" waitingTime="0.00" waitingCount="0" stopTime="0.00" timeLoss="6.05" rerouteNo="0" devices="tripinfo_MIMO25" vType="strong" speedFactor="1.09" vaporized=""/>
    <tripinfo id="MIMO22" depart="35.00" departLane="A1_0" departPos="5.10" departSpeed="0.00" departDelay="0.00" arrival="380.00" arrivalLane="A10_0" arrivalPos="1000.00" arrivalSpeed="29.46" duration="345.00" routeLength="9995.80" waitingTime="0.00" waitingCount="0" stopTime="0.00" timeLoss="6.13" rerouteNo="0" devices="tripinfo_MIMO22" vType="strong" speedFactor="0.89" vaporized=""/>
    <tripinfo id="MIMO26" depart="55.00" departLane="A1_1" departPos="5.10" departSpeed="0.00" departDelay="0.00" arrival="380.20" arrivalLane="A10_1" arrivalPos="1000.00" arrivalSpeed="31.36" duration="325.20" routeLength="9995.80" waitingTime="0.00" waitingCount="0" stopTime="0.00" timeLoss="6.63" rerouteNo="0" devices="tripinfo_MIMO26" vType="strong" speedFactor="1.03" vaporized=""/>
    <tripinfo id="MIMO27" depart="60.00" departLane="A1_0" departPos="5.10" departSpeed="0.00" departDelay="0.00" arrival="385.00" arrivalLane="A10_0" arrivalPos="1000.00" arrivalSpeed="31.37" duration="325.00" routeLength="9995.80" waitingTime="0.00" waitingCount="0" stopTime="0.00" timeLoss="6.43" rerouteNo="0" devices="tripinfo_MIMO27" vType="weak@MIMO27" speedFactor="1.05" vaporized=""/>
    <tripinfo id="mali28" depart="65.00" departLane="A1_0" departPos="5.10" departSpeed="0.00" departDelay="0.00" arrival="390.10" arrivalLane="A10_1" arrivalPos="1000.00" arrivalSpeed="31.34" duration="325.10" routeLength="9995.80" waitingTime="0.00" waitingCount="0" stopTime="0.00" timeLoss="6.47" rerouteNo="0" devices="tripinfo_mali28" vType="malicious@mali28" speedFactor="1.12" vaporized=""/>
    <tripinfo id="mali10" depart="25.00" departLane="A1_0" departPos="5.10" departSpeed="0.00" departDelay="0.00" arrival="392.00" arrivalLane="A10_0" arrivalPos="1000.00" arrivalSpeed="27.59" duration="367.00" routeLength="9995.80" waitingTime="0.00" waitingCount="0" stopTime="0.00" timeLoss="5.75" rerouteNo="0" devices="tripinfo_mali10" vType="malicious@mali10" speedFactor="0.83" vaporized=""/>
    <tripinfo id="MIMO34" depart="70.00" departLane="A1_1" departPos="5.10" departSpeed="0.00" departDelay="0.00" arrival="394.90" arrivalLane="A10_0" arrivalPos="1000.00" arrivalSpeed="31.37" duration="324.90" routeLength="9995.80" waitingTime="0.00" waitingCount="0" stopTime="0.00" timeLoss="6.27" rerouteNo="0" devices="tripinfo_MIMO34" vType="weak@MIMO34" speedFactor="0.99" vaporized=""/>
    <tripinfo id="MIMO24" depart="45.00" departLane="A1_1" departPos="5.10" departSpeed="0.00" departDelay="0.00" arrival="401.10" arrivalLane="A10_0" arrivalPos="1000.00" arrivalSpeed="28.45" duration="356.10" routeLength="9995.80" waitingTime="0.00" waitingCount="0" stopTime="0.00" timeLoss="5.81" rerouteNo="0" devices="tripinfo_MIMO24" vType="strong" speedFactor="0.86" vaporized=""/>
    <tripinfo id="MIMO35" depart="75.00" departLane="A1_1" departPos="5.10" departSpeed="0.00" departDelay="0.00" arrival="405.00" arrivalLane="A10_0" arrivalPos="1000.00" arrivalSpeed="30.72" duration="330.00" routeLength="9995.80" waitingTime="0.00" waitingCount="0" stopTime="0.00" timeLoss="6.08" rerouteNo="0" devices="tripinfo_MIMO35" vType="strong" speedFactor="0.93" vaporized=""/>
    <tripinfo id="MIMO42" depart="85.00" departLane="A1_0" departPos="5.10" departSpeed="0.00" departDelay="0.00" arrival="410.10" arrivalLane="A10_0" arrivalPos="1000.00" arrivalSpeed="31.17" duration="325.10" routeLength="9995.80" waitingTime="0.00" waitingCount="0" stopTime="0.00" timeLoss="6.18" rerouteNo="0" devices="tripinfo_MIMO42" vType="weak@MIMO42" speedFactor="0.94" vaporized=""/>
    <tripinfo id="MIMO43" depart="90.00" departLane="A1_1" departPos="5.10" departSpeed="0.00" departDelay="0.00" arrival="416.90" arrivalLane="A10_0" arrivalPos="1000.00" arrivalSpeed="31.10" duration="326.90" routeLength="9995.80" waitingTime="0.00" waitingCount="0" stopTime="0.00" timeLoss="6.26" rerouteNo="0" devices="tripinfo_MIMO43" vType="weak@MIMO43" speedFactor="0.94" vaporized=""/>
    <tripinfo id="MIMO44" depart="95.00" departLane="A1_0" departPos="5.10" departSpeed="0.00" departDelay="0.00" arrival="419.90" arrivalLane="A10_0" arrivalPos="1000.00" arrivalSpeed="31.20" duration="324.90" routeLength="9995.80" waitingTime="0.00" waitingCount="0" stopTime="0.00" timeLoss="6.35" rerouteNo="0" devices="tripinfo_MIMO44" vType="weak@MIMO44" speedFactor="1.16" vaporized=""/>
    <tripinfo id="MIMO45" depart="100.00" departLane="A1_0" departPos="5.10" departSpeed="0.00" departDelay="0.00" arrival="424.90" arrivalLane="A10_0" arrivalPos="1000.00" arrivalSpeed="31.34" duration="324.90" routeLength="9995.80" waitingTime="0.00" waitingCount="0" stopTime="0.00" timeLoss="6.35" rerouteNo="0" devices="tripinfo_MIMO45" vType="strong" speedFactor="1.02" vaporized=""/>
    <tripinfo id="mali36" depart="80.00" departLane="A1_1" departPos="5.10" departSpeed="0.00" departDelay="0.00" arrival="427.60" arrivalLane="A10_0" arrivalPos="1000.00" arrivalSpeed="29.12" duration="347.60" routeLength="9995.80" waitingTime="0.00" waitingCount="0" stopTime="0.00" timeLoss="5.86" rerouteNo="0" devices="tripinfo_mali36" vType="malicious@mali36" speedFactor="0.88" vaporized=""/>
    <tripinfo id="MIMO46" depart="105.00" departLane="A1_1" departPos="5.10" departSpeed="0.00" departDelay="0.00" arrival="429.50" arrivalLane="A10_0" arrivalPos="1000.00" arrivalSpeed="31.26" duration="324.50" routeLength="9995.80" waitingTime="0.00" waitingCount="0" stopTime="0.00" timeLoss="5.94" rerouteNo="0" devices="tripinfo_MIMO46" vType="weak@MIMO46" speedFactor="1.01" vaporized=""/>
    <tripinfo id="MIMO47" depart="110.00" departLane="A1_1" departPos="5.10" departSpeed="0.00" departDelay="0.00" arrival="434.70" arrivalLane="A10_0" arrivalPos="1000.00" arrivalSpeed="31.25" duration="324.70" routeLength="9995.80" waitingTime="0.00" waitingCount="0" stopTime="0.00" timeLoss="6.15" rerouteNo="0" devices="tripinfo_MIMO47" vType="weak@MIMO47" speedFactor="0.98" vaporized=""/>
    <tripinfo id="mali48" depart="115.00" departLane="A1_0" departPos="5.10" departSpeed="0.00" departDelay="0.00" arrival="458.20" arrivalLane="A10_0" arrivalPos="1000.00" arrivalSpeed="29.60" duration="343.20" routeLength="9995.80" waitingTime="0.00" waitingCount="0" stopTime="0.00" timeLoss="5.76" rerouteNo="0" devices="tripinfo_mali48" vType="malicious@mali48" speedFactor="0.89" vaporized=""/>
    <tripinfo id="MIMO57" depart="135.00" departLane="A1_1" departPos="5.10" departSpeed="0.00" departDelay="0.00" arrival="462.30" arrivalLane="A10_0" arrivalPos="1000.00" arrivalSpeed="31.26" duration="327.30" routeLength="9995.80" waitingTime="0.00" waitingCount="0" stopTime="0.00" timeLoss="8.67" rerouteNo="0" devices="tripinfo_MIMO57" vType="weak@MIMO57" speedFactor="0.95" vaporized=""/>
    <tripinfo id="MIMO58" depart="140.00" departLane="A1_0" departPos="5.10" departSpeed="0.00" departDelay="0.00" arrival="465.10" arrivalLane="A10_1" arrivalPos="1000.00" arrivalSpeed="31.37" duration="325.10" routeLength="9995.80" waitingTime="0.00" waitingCount="0" stopTime="0.00" timeLoss="6.53" rerouteNo="0" devices="tripinfo_MIMO58" vType="strong" speedFactor="1.13" vaporized=""/>
    <tripinfo id="MIMO56" depart="130.00" departLane="A1_0" departPos="5.10" departSpeed="0.00" departDelay="0.00" arrival="465.30" arrivalLane="A10_0" arrivalPos="1000.00" arrivalSpeed="30.43" duration="335.30" routeLength="9995.80" waitingTime="0.00" waitingCount="0" stopTime="0.00" timeLoss="7.95" rerouteNo="0" devices="tripinfo_MIMO56" vType="strong" speedFactor="0.92" vaporized=""/>
    <tripinfo id="MIMO59" depart="145.00" departLane="A1_1" departPos="5.10" departSpeed="0.00" departDelay="0.00" arrival="473.80" arrivalLane="A10_1" arrivalPos="1000.00" arrivalSpeed="30.95" duration="328.80" routeLength="9995.80" waitingTime="0.00" waitingCount="0" stopTime="0.00" timeLoss="6.46" rerouteNo="0" devices="tripinfo_MIMO59" vType="strong" speedFactor="0.93" vaporized=""/>
    <tripinfo id="MIMO55" depart="125.00" departLane="A1_0" departPos="5.10" departSpeed="0.00" departDelay="0.00" arrival="475.00" arrivalLane="A10_0" arrivalPos="1000.00" arrivalSpeed="28.95" duration="350.00" routeLength="9995.80" waitingTime="0.00" waitingCount="0" stopTime="0.00" timeLoss="5.95" rerouteNo="0" devices="tripinfo_MIMO55" vType="weak@MIMO55" speedFactor="0.87" vaporized=""/>
    <tripinfo id="MIMO60" depart="150.00" departLane="A1_0" departPos="5.10" departSpeed="0.00" departDelay="0.00" arrival="475.30" arrivalLane="A10_1" arrivalPos="1000.00" arrivalSpeed="31.34" duration="325.30" routeLength="9995.80" waitingTime="0.00" waitingCount="0" stopTime="0.00" timeLoss="6.74" rerouteNo="0" devices="tripinfo_MIMO60" vType="strong" speedFactor="1.18" vaporized=""/>
    <tripinfo id="MIMO61" depart="155.00" departLane="A1_0" departPos="5.10" departSpeed="0.00" departDelay="0.00" arrival="480.00" arrivalLane="A10_0" arrivalPos="1000.00" arrivalSpeed="31.35" duration="325.00" routeLength="9995.80" waitingTime="0.00" waitingCount="0" stopTime="0.00" timeLoss="6.39" rerouteNo="0" devices="tripinfo_MIMO61" vType="weak@MIMO61" speedFactor="1.15" vaporized=""/>
    <tripinfo id="MIMO62" depart="160.00" departLane="A1_1" departPos="5.10" departSpeed="0.00" departDelay="0.00" arrival="484.70" arrivalLane="A10_1" arrivalPos="1000.00" arrivalSpeed="31.21" duration="324.70" routeLength="9995.80" waitingTime="0.00" waitingCount="0" stopTime="0.00" timeLoss="6.07" rerouteNo="0" devices="tripinfo_MIMO62" vType="weak@MIMO62" speedFactor="1.01" vaporized=""/>
    <tripinfo id="MIMO54" depart="120.00" departLane="A1_0" departPos="5.10" departSpeed="0.00" departDelay="0.00" arrival="489.30" arrivalLane="A10_0" arrivalPos="1000.00" arrivalSpeed="27.42" duration="369.30" routeLength="9995.80" waitingTime="0.00" waitingCount="0" stopTime="0.00" timeLoss="5.72" rerouteNo="0" devices="tripinfo_MIMO54" vType="weak@MIMO54" speedFactor="0.83" vaporized=""/>
    <tripinfo id="MIMO63" depart="165.00" departLane="A1_1" departPos="5.10" departSpeed="0.00" departDelay="0.00" arrival="490.10" arrivalLane="A10_1" arrivalPos="1000.00" arrivalSpeed="31.25" duration="325.10" routeLength="9995.80" waitingTime="0.00" waitingCount="0" stopTime="0.00" timeLoss="6.48" rerouteNo="0" devices="tripinfo_MIMO63" vType="weak@MIMO63" speedFactor="1.17" vaporized=""/>
    <tripinfo id="MIMO64" depart="170.00" departLane="A1_0" departPos="5.10" departSpeed="0.00" departDelay="0.00" arrival="494.70" arrivalLane="A10_0" arrivalPos="1000.00" arrivalSpeed="31.29" duration="324.70" routeLength="9995.80" waitingTime="0.00" waitingCount="0" stopTime="0.00" timeLoss="6.11" rerouteNo="0" devices="tripinfo_MIMO64" vType="weak@MIMO64" speedFactor="0.99" vaporized=""/>
    <tripinfo id="MIMO65" depart="175.00" departLane="A1_1" departPos="5.10" departSpeed="0.00" departDelay="0.00" arrival="499.60" arrivalLane="A10_0" arrivalPos="1000.00" arrivalSpeed="31.35" duration="324.60" routeLength="9995.80" waitingTime="0.00" waitingCount="0" stopTime="0.00" timeLoss="6.03" rerouteNo="0" devices="tripinfo_MIMO65" vType="weak@MIMO65" speedFactor="1.02" vaporized=""/>
    <tripinfo id="mali66" depart="180.00" departLane="A1_1" departPos="5.10" departSpeed="0.00" departDelay="0.00" arrival="504.80" arrivalLane="A10_0" arrivalPos="1000.00" arrivalSpeed="31.32" duration="324.80" routeLength="9995.80" waitingTime="0.00" waitingCount="0" stopTime="0.00" timeLoss="6.18" rerouteNo="0" devices="tripinfo_mali66" vType="malicious@mali66" speedFactor="0.97" vaporized=""/>
    <tripinfo id="mali72" depart="185.00" departLane="A1_0" departPos="5.10" departSpeed="0.00" departDelay="0.00" arrival="509.60" arrivalLane="A10_0" arrivalPos="1000.00" arrivalSpeed="31.35" duration="324.60" routeLength="9995.80" waitingTime="0.00" waitingCount="0" stopTime="0.00" timeLoss="5.97" rerouteNo="0" devices="tripinfo_mali72" vType="malicious@mali72" speedFactor="1.18" vaporized=""/>
    <tripinfo id="MIMO78" depart="190.00" departLane="A1_1" departPos="5.10" departSpeed="0.00" departDelay="0.00" arrival="514.70" arrivalLane="A10_0" arrivalPos="1000.00" arrivalSpeed="31.32" duration="324.70" routeLength="9995.80" waitingTime="0.00" waitingCount="0" stopTime="0.00" timeLoss="6.13" rerouteNo="0" devices="tripinfo_MIMO78" vType="strong" speedFactor="1.10" vaporized=""/>
    <tripinfo id="mali85" depart="200.00" departLane="A1_1" departPos="5.10" departSpeed="0.00" departDelay="0.00" arrival="524.70" arrivalLane="A10_0" arrivalPos="1000.00" arrivalSpeed="31.34" duration="324.70" routeLength="9995.80" waitingTime="0.00" waitingCount="0" stopTime="0.00" timeLoss="6.16" rerouteNo="0" devices="tripinfo_mali85" vType="malicious@mali85" speedFactor="1.03" vaporized=""/>
    <tripinfo id="MIMO91" depart="205.00" departLane="A1_0" departPos="5.10" departSpeed="0.00" departDelay="0.00" arrival="529.90" arrivalLane="A10_0" arrivalPos="1000.00" arrivalSpeed="31.28" duration="324.90" routeLength="9995.80" waitingTime="0.00" waitingCount="0" stopTime="0.00" timeLoss="6.30" rerouteNo="0" devices="tripinfo_MIMO91" vType="strong" speedFactor="0.96" vaporized=""/>
    <tripinfo id="mali79" depart="195.00" departLane="A1_0" departPos="5.10" departSpeed="0.00" departDelay="0.00" arrival="534.30" arrivalLane="A10_0" arrivalPos="1000.00" arrivalSpeed="29.99" duration="339.30" routeLength="9995.80" waitingTime="0.00" waitingCount="0" stopTime="0.00" timeLoss="5.99" rerouteNo="0" devices="tripinfo_mali79" vType="malicious@mali79" speedFactor="0.90" vaporized=""/>
    <tripinfo id="MIMO92" depart="210.00" departLane="A1_0" departPos="5.10" departSpeed="0.00" departDelay="0.00" arrival="534.80" arrivalLane="A10_1" arrivalPos="1000.00" arrivalSpeed="31.28" duration="324.80" routeLength="9995.80" waitingTime="0.00" waitingCount="0" stopTime="0.00" timeLoss="6.19" rerouteNo="0" devices="tripinfo_MIMO92" vType="weak@MIMO92" speedFactor="1.09" vaporized=""/>
    <tripinfo id="mali93" depart="215.00" departLane="A1_0" departPos="5.10" departSpeed="0.00" departDelay="0.00" arrival="539.80" arrivalLane="A10_0" arrivalPos="1000.00" arrivalSpeed="31.22" duration="324.80" routeLength="9995.80" waitingTime="0.00" waitingCount="0" stopTime="0.00" timeLoss="6.17" rerouteNo="0" devices="tripinfo_mali93" vType="malicious@mali93" speedFactor="1.04" vaporized=""/>
    <tripinfo id="MIMO99" depart="220.00" departLane="A1_1" departPos="5.10" departSpeed="0.00" departDelay="0.00" arrival="544.70" arrivalLane="A10_0" arrivalPos="1000.00" arrivalSpeed="31.27" duration="324.70" routeLength="9995.80" waitingTime="0.00" waitingCount="0" stopTime="0.00" timeLoss="6.07" rerouteNo="0" devices="tripinfo_MIMO99" vType="weak@MIMO99" speedFactor="1.04" vaporized=""/>
    <tripinfo id="MIMO100" depart="225.00" departLane="A1_1" departPos="5.10" departSpeed="0.00" departDelay="0.00" arrival="549.40" arrivalLane="A10_0" arrivalPos="1000.00" arrivalSpeed="31.22" duration="324.40" routeLength="9995.80" waitingTime="0.00" waitingCount="0" stopTime="0.00" timeLoss="5.84" rerouteNo="0" devices="tripinfo_MIMO100" vType="strong" speedFactor="1.09" vaporized=""/>
    <tripinfo id="MIMO101" depart="230.00" departLane="A1_1" departPos="5.10" departSpeed="0.00" departDelay="0.00" arrival="554.60" arrivalLane="A10_0" arrivalPos="1000.00" arrivalSpeed="31.19" duration="324.60" routeLength="9995.80" waitingTime="0.00" waitingCount="0" stopTime="0.00" timeLoss="6.04" rerouteNo="0" devices="tripinfo_MIMO101" vType="weak@MIMO101" speedFactor="1.00" vaporized=""/>
    <tripinfo id="MIMO102" depart="235.00" departLane="A1_0" departPos="5.10" departSpeed="0.00" departDelay="0.00" arrival="574.20" arrivalLane="A10_0" arrivalPos="1000.00" arrivalSpeed="29.89" duration="339.20" routeLength="9995.80" waitingTime="0.00" waitingCount="0" stopTime="0.00" timeLoss="5.80" rerouteNo="0" devices="tripinfo_MIMO102" vType="weak@MIMO102" speedFactor="0.90" vaporized=""/>
    <tripinfo id="MIMO106" depart="255.00" departLane="A1_0" departPos="5.10" departSpeed="0.00" departDelay="0.00" arrival="580.10" arrivalLane="A10_0" arrivalPos="1000.00" arrivalSpeed="31.19" duration="325.10" routeLength="9995.80" waitingTime="0.00" waitingCount="0" stopTime="0.00" timeLoss="6.51" rerouteNo="0" devices="tripinfo_MIMO106" vType="strong" speedFactor="1.17" vaporized=""/>
    <tripinfo id="MIMO107" depart="260.00" departLane="A1_0" departPos="5.10" departSpeed="0.00" departDelay="0.00" arrival="585.00" arrivalLane="A10_0" arrivalPos="1000.00" arrivalSpeed="31.36" duration="325.00" routeLength="9995.80" waitingTime="0.00" waitingCount="0" stopTime="0.00" timeLoss="6.41" rerouteNo="0" devices="tripinfo_MIMO107" vType="weak@MIMO107" speedFactor="1.02" vaporized=""/>
    <tripinfo id="MIMO103" depart="240.00" departLane="A1_1" departPos="5.10" departSpeed="0.00" departDelay="0.00" arrival="588.10" arrivalLane="A10_0" arrivalPos="1000.00" arrivalSpeed="29.18" duration="348.10" routeLength="9995.80" waitingTime="0.00" waitingCount="0" stopTime="0.00" timeLoss="5.72" rerouteNo="0" devices="tripinfo_MIMO103" vType="strong" speedFactor="0.88" vaporized=""/>
    <tripinfo id="mali108" depart="265.00" departLane="A1_0" departPos="5.10" departSpeed="0.00" departDelay="0.00" arrival="589.90" arrivalLane="A10_0" arrivalPos="1000.00" arrivalSpeed="31.32" duration="324.90" routeLength="9995.80" waitingTime="0.00" waitingCount="0" stopTime="0.00" timeLoss="6.27" rerouteNo="0" devices="tripinfo_mali108" vType="malicious@mali108" speedFactor="1.10" vaporized=""/>
    <tripinfo id="MIMO114" depart="270.00" departLane="A1_0" departPos="5.10" departSpeed="0.00" departDelay="0.00" arrival="594.70" arrivalLane="A10_0" arrivalPos="1000.00" arrivalSpeed="31.37" duration="324.70" routeLength="9995.80" waitingTime="0.00" waitingCount="0" stopTime="0.00" timeLoss="6.10" rerouteNo="0" devices="tripinfo_MIMO114" vType="strong" speedFactor="1.00" vaporized=""/>
    <tripinfo id="MIMO115" depart="275.00" departLane="A1_0" departPos="5.10" departSpeed="0.00" departDelay="0.00" arrival="599.70" arrivalLane="A10_0" arrivalPos="1000.00" arrivalSpeed="31.27" duration="324.70" routeLength="9995.80" waitingTime="0.00" waitingCount="0" stopTime="0.00" timeLoss="6.08" rerouteNo="0" devices="tripinfo_MIMO115" vType="strong" speedFactor="1.00" vaporized=""/>
    <tripinfo id="MIMO104" depart="245.00" departLane="A1_1" departPos="5.10" departSpeed="0.00" departDelay="0.00" arrival="603.70" arrivalLane="A10_0" arrivalPos="1000.00" arrivalSpeed="28.28" duration="358.70" routeLength="9995.80" waitingTime="0.00" waitingCount="0" stopTime="0.00" timeLoss="5.66" rerouteNo="0" devices="tripinfo_MIMO104" vType="weak@MIMO104" speedFactor="0.85" vaporized=""/>
    <tripinfo id="MIMO105" depart="250.00" departLane="A1_1" departPos="5.10" departSpeed="0.00" departDelay="0.00" arrival="606.80" arrivalLane="A10_0" arrivalPos="1000.00" arrivalSpeed="28.30" duration="356.80" routeLength="9995.80" waitingTime="0.00" waitingCount="0" stopTime="0.00" timeLoss="5.65" rerouteNo="0" devices="tripinfo_MIMO105" vType="weak@MIMO105" speedFactor="0.85" vaporized=""/>
    <tripinfo id="mali122" depart="285.00" departLane="A1_0" departPos="5.10" departSpeed="0.00" departDelay="0.00" arrival="610.00" arrivalLane="A10_0" arrivalPos="1000.00" arrivalSpeed="31.29" duration="325.00" routeLength="9995.80" waitingTime="0.00" waitingCount="0" stopTime="0.00" timeLoss="6.44" rerouteNo="0" devices="tripinfo_mali122" vType="malicious@mali122" speedFactor="1.14" vaporized=""/>
    <tripinfo id="MIMO128" depart="290.00" departLane="A1_0" departPos="5.10" departSpeed="0.00" departDelay="0.00" arrival="614.70" arrivalLane="A10_0" arrivalPos="1000.00" arrivalSpeed="31.37" duration="324.70" routeLength="9995.80" waitingTime="0.00" waitingCount="0" stopTime="0.00" timeLoss="6.09" rerouteNo="0" devices="tripinfo_MIMO128" vType="weak@MIMO128" speedFactor="1.02" vaporized=""/>
    <tripinfo id="mali116" depart="280.00" departLane="A1_1" departPos="5.10" departSpeed="0.00" departDelay="0.00" arrival="619.80" arrivalLane="A10_0" arrivalPos="1000.00" arrivalSpeed="29.74" duration="339.80" routeLength="9995.80" waitingTime="0.00" waitingCount="0" stopTime="0.00" timeLoss="5.78" rerouteNo="0" devices="tripinfo_mali116" vType="malicious@mali116" speedFactor="0.90" vaporized=""/>
    <tripinfo id="MIMO129" depart="295.00" departLane="A1_1" departPos="5.10" departSpeed="0.00" departDelay="0.00" arrival="619.80" arrivalLane="A10_1" arrivalPos="1000.00" arrivalSpeed="31.23" duration="324.80" routeLength="9995.80" waitingTime="0.00" waitingCount="0" stopTime="0.00" timeLoss="6.19" rerouteNo="0" devices="tripinfo_MIMO129" vType="weak@MIMO129" speedFactor="0.97" vaporized=""/>
    <tripinfo id="MIMO130" depart="300.00" departLane="A1_1" departPos="5.10" departSpeed="0.00" departDelay="0.00" arrival="624.80" arrivalLane="A10_0" arrivalPos="1000.00" arrivalSpeed="31.23" duration="324.80" routeLength="9995.80" waitingTime="0.00" waitingCount="0" stopTime="0.00" timeLoss="6.24" rerouteNo="0" devices="tripinfo_MIMO130" vType="weak@MIMO130" speedFactor="1.08" vaporized=""/>
    <tripinfo id="MIMO131" depart="305.00" departLane="A1_0" departPos="5.10" departSpeed="0.00" departDelay="0.00" arrival="629.50" arrivalLane="A10_0" arrivalPos="1000.00" arrivalSpeed="31.32" duration="324.50" routeLength="9995.80" waitingTime="0.00" waitingCount="0" stopTime="0.00" timeLoss="5.92" rerouteNo="0" devices="tripinfo_MIMO131" vType="strong" speedFactor="1.12" vaporized=""/>
    <tripinfo id="MIMO132" depart="310.00" departLane="A1_0" departPos="5.10" departSpeed="0.00" departDelay="0.00" arrival="634.60" arrivalLane="A10_0" arrivalPos="1000.00" arrivalSpeed="31.33" duration="324.60" routeLength="9995.80" waitingTime="0.00" waitingCount="0" stopTime="0.00" timeLoss="6.02" rerouteNo="0" devices="tripinfo_MIMO132" vType="strong" speedFactor="1.02" vaporized=""/>
    <tripinfo id="MIMO133" depart="315.00" departLane="A1_0" departPos="5.10" departSpeed="0.00" departDelay="0.00" arrival="639.70" arrivalLane="A10_0" arrivalPos="1000.00" arrivalSpeed="31.21" duration="324.70" routeLength="9995.80" waitingTime="0.00" waitingCount="0" stopTime="0.00" timeLoss="6.11" rerouteNo="0" devices="tripinfo_MIMO133" vType="strong" speedFactor="0.99" vaporized=""/>
    <tripinfo id="MIMO134" depart="320.00" departLane="A1_0" departPos="5.10" departSpeed="0.00" departDelay="0.00" arrival="646.20" arrivalLane="A10_0" arrivalPos="1000.00" arrivalSpeed="31.18" duration="326.20" routeLength="9995.80" waitingTime="0.00" waitingCount="0" stopTime="0.00" timeLoss="6.06" rerouteNo="0" devices="tripinfo_MIMO134" vType="weak@MIMO134" speedFactor="0.94" vaporized=""/>
    <tripinfo id="MIMO143" depart="340.00" departLane="A1_0" departPos="5.10" departSpeed="0.00" departDelay="0.00" arrival="665.30" arrivalLane="A10_0" arrivalPos="1000.00" arrivalSpeed="31.35" duration="325.30" routeLength="9995.80" waitingTime="0.00" waitingCount="0" stopTime="0.00" timeLoss="6.76" rerouteNo="0" devices="tripinfo_MIMO143" vType="weak@MIMO143" speedFactor="1.04" vaporized=""/>
    <tripinfo id="MIMO136" depart="330.00" departLane="A1_0" departPos="5.10" departSpeed="0.00" departDelay="0.00" arrival="667.20" arrivalLane="A10_0" arrivalPos="1000.00" arrivalSpeed="30.07" duration="337.20" routeLength="9995.80" waitingTime="0.00" waitingCount="0" stopTime="0.00" timeLoss="6.18" rerouteNo="0" devices="tripinfo_MIMO136" vType="weak@MIMO136" speedFactor="0.91" vaporized=""/>
    <tripinfo id="mali137" depart="335.00" departLane="A1_1" departPos="5.10" departSpeed="0.00" departDelay="0.00" arrival="669.60" arrivalLane="A10_0" arrivalPos="1000.00" arrivalSpeed="30.46" duration="334.60" routeLength="9995.80" waitingTime="0.00" waitingCount="0" stopTime="0.00" timeLoss="6.31" rerouteNo="0" devices="tripinfo_mali137" vType="malicious@mali137" speedFactor="0.91" vaporized=""/>
    <tripinfo id="MIMO144" depart="345.00" departLane="A1_1" departPos="5.10" departSpeed="0.00" departDelay="0.00" arrival="670.80" arrivalLane="A10_1" arrivalPos="1000.00" arrivalSpeed="31.31" duration="325.80" routeLength="9995.80" waitingTime="0.00" waitingCount="0" stopTime="0.00" timeLoss="7.25" rerouteNo="0" devices="tripinfo_MIMO144" vType="weak@MIMO144" speedFactor="1.02" vaporized=""/>
    <tripinfo id="MIMO135" depart="325.00" departLane="A1_1" departPos="5.10" departSpeed="0.00" departDelay="0.00" arrival="671.10" arrivalLane="A10_0" arrivalPos="1000.00" arrivalSpeed="29.22" duration="346.10" routeLength="9995.80" waitingTime="0.00" waitingCount="0" stopTime="0.00" timeLoss="5.82" rerouteNo="0" devices="tripinfo_MIMO135" vType="weak@MIMO135" speedFactor="0.88" vaporized=""/>
    <tripinfo id="mali145" depart="350.00" departLane="A1_1" departPos="5.10" departSpeed="0.00" departDelay="0.00" arrival="674.50" arrivalLane="A10_0" arrivalPos="1000.00" arrivalSpeed="31.27" duration="324.50" routeLength="9995.80" waitingTime="0.00" waitingCount="0" stopTime="0.00" timeLoss="5.95" rerouteNo="0" devices="tripinfo_mali145" vType="malicious@mali145" speedFactor="1.02" vaporized=""/>
    <tripinfo id="MIMO151" depart="355.00" departLane="A1_1" departPos="5.10" departSpeed="0.00" departDelay="0.00" arrival="679.60" arrivalLane="A10_0" arrivalPos="1000.00" arrivalSpeed="31.22" duration="324.60" routeLength="9995.80" waitingTime="0.00" waitingCount="0" stopTime="0.00" timeLoss="6.00" rerouteNo="0" devices="tripinfo_MIMO151" vType="weak@MIMO151" speedFactor="0.97" vaporized=""/>
    <tripinfo id="MIMO152" depart="360.00" departLane="A1_1" departPos="5.10" departSpeed="0.00" departDelay="0.00" arrival="685.40" arrivalLane="A10_0" arrivalPos="1000.00" arrivalSpeed="31.29" duration="325.40" routeLength="9995.80" waitingTime="0.00" waitingCount="0" stopTime="0.00" timeLoss="6.05" rerouteNo="0" devices="tripinfo_MIMO152" vType="weak@MIMO152" speedFactor="0.94" vaporized=""/>